# vtk DataFile Version 2.0
Really cool data
ASCII
DATASET POLYDATA
POINTS 1395 float
0.0 0.0 0
100.0 0.0 0
100.0 10.0 0
50.25 10.0 0
50.25 5.0 0
49.75 5.0 0
49.75 10.0 0
0.0 10.0 0
1.000000000949602 0.0 0
2.000000001759601 0.0 0
3.000000002460313 0.0 0
4.000000003431641 0.0 0
5.000000004173987 0.0 0
6.000000004999599 0.0 0
7.000000006033377 0.0 0
8.000000007067156 0.0 0
9.000000007830316 0.0 0
10.00000000851021 0.0 0
11.0000000103836 0.0 0
12.00000001195861 0.0 0
13.00000001299239 0.0 0
14.00000001487965 0.0 0
15.00000001818938 0.0 0
16.00000002044441 0.0 0
17.00000002145043 0.0 0
18.0000000235528 0.0 0
19.00000002566905 0.0 0
20.00000002689712 0.0 0
21.00000002824315 0.0 0
22.00000002930468 0.0 0
23.00000003247564 0.0 0
24.00000003456413 0.0 0
25.00000003695793 0.0 0
26.00000004043419 0.0 0
27.0000000435219 0.0 0
28.00000004436138 0.0 0
29.00000004592252 0.0 0
30.00000004764325 0.0 0
31.00000004683128 0.0 0
32.00000004619278 0.0 0
33.00000004832985 0.0 0
34.00000004919708 0.0 0
35.00000004781613 0.0 0
36.00000004785072 0.0 0
37.00000005054983 0.0 0
38.00000005580246 0.0 0
39.00000005850157 0.0 0
40.00000005888309 0.0 0
41.00000006152671 0.0 0
42.00000006500298 0.0 0
43.00000006847924 0.0 0
44.00000007037345 0.0 0
45.00000007265623 0.0 0
46.0000000761325 0.0 0
47.00000007960877 0.0 0
48.00000008055929 0.0 0
49.00000008261307 0.0 0
50.00000008413951 0.0 0
51.00000007721439 0.0 0
52.00000007462607 0.0 0
53.00000007126754 0.0 0
54.00000006754125 0.0 0
55.00000006391208 0.0 0
56.00000006003315 0.0 0
57.00000005613336 0.0 0
58.00000005250421 0.0 0
59.00000004893057 0.0 0
60.00000004489897 0.0 0
61.00000004252229 0.0 0
62.00000004056889 0.0 0
63.00000004249085 0.0 0
64.00000003708534 0.0 0
65.00000002710016 0.0 0
66.00000002369998 0.0 0
67.0000000182806 0.0 0
68.00000001454045 0.0 0
69.00000000627614 0.0 0
70.00000000531153 0.0 0
71.00000000201543 0.0 0
71.99999999901776 0.0 0
72.99999999858741 0.0 0
73.99999999088519 0.0 0
74.99999998838013 0.0 0
75.99999998631915 0.0 0
76.99999998059448 0.0 0
77.99999997957435 0.0 0
78.99999997678484 0.0 0
79.9999999802611 0.0 0
80.99999997788096 0.0 0
81.99999997078235 0.0 0
82.99999997056715 0.0 0
83.9999999740434 0.0 0
84.99999997526456 0.0 0
85.99999997609018 0.0 0
86.99999997701295 0.0 0
87.99999997485483 0.0 0
88.99999997122568 0.0 0
89.99999997300884 0.0 0
90.99999997293241 0.0 0
91.99999997568705 0.0 0
92.99999998156417 0.0 0
93.99999998064118 0.0 0
94.99999998150844 0.0 0
95.99999998538718 0.0 0
96.99999998739236 0.0 0
97.99999998974457 0.0 0
98.99999999358167 0.0 0
99.99999999999999 1.000000001135088 0
100.0 2.000000003158099 0
100.0 3.000000004864521 0
99.99999999999999 4.00000000690054 0
100.0 5.000000009942701 0
100.0 6.000000006774551 0
100.0 7.000000002218624 0
100.0 7.99999999849536 0
100.0 8.999999998068066 0
99.004999998411 10.0 0
98.00999999754363 10.0 0
97.01499999180517 9.999999999999998 0
96.01999999468482 10.0 0
95.02499999420603 9.999999999999998 0
94.02999999185374 10.0 0
93.03499998651775 10.0 0
92.03999998109848 10.0 0
91.04499997968986 10.0 0
90.04999998182012 10.0 0
89.05499997399998 10.0 0
88.05999996539576 10.0 0
87.06499996018464 9.999999999999998 0
86.06999995106001 10.0 0
85.07499994431541 10.0 0
84.07999994234474 9.999999999999998 0
83.08499994136638 10.0 0
82.08999993722385 10.0 0
81.09499993949288 10.0 0
80.09999993349072 10.0 0
79.10499993485769 10.0 0
78.10999993043761 10.0 0
77.11499992648939 10.0 0
76.11999992594123 10.0 0
75.12499992870289 10.0 0
74.12999992868902 10.0 0
73.13499993645362 10.0 0
72.13999993902797 10.0 0
71.14499994319131 10.0 0
70.14999994022146 10.0 0
69.1549999394235 10.0 0
68.15999993995779 10.0 0
67.16499993998553 10.0 0
66.16999994124147 10.0 0
65.17499994134901 10.0 0
64.17999994058574 10.0 0
63.1849999416335 10.0 0
62.18999994257022 9.999999999999998 0
61.19499994768415 10.0 0
60.19999995605943 9.999999999999998 0
59.20499995782884 10.0 0
58.20999995945947 10.0 0
57.21499996229054 10.0 0
56.21999997101967 10.0 0
55.22499997788222 10.0 0
54.22999998407867 9.999999999999998 0
53.234999989328 10.0 0
52.23999999012594 10.0 0
51.24499999085454 9.999999999999998 0
50.25 9.166666665437903 0
50.25 8.333333329834971 0
50.25 7.499999994405512 0
50.25 6.666666662561148 0
50.25 5.833333329213358 0
49.99999997944354 5.000000000000001 0
49.74999999999999 5.833333334750025 0
49.75000000000001 6.666666668690512 0
49.75 7.500000001994932 0
49.74999999999999 8.333333334085049 0
49.75000000000001 9.166666664787385 0
48.75499999941778 10.0 0
47.75999999465834 10.0 0
46.76499999657413 10.0 0
45.76999999935034 10.0 0
44.77499999764402 10.0 0
43.77999999681199 10.0 0
42.78499999201092 9.999999999999998 0
41.78999998970787 10.0 0
40.79499998659989 10.0 0
39.79999998265924 10.0 0
38.80499998063372 10.0 0
37.80999997982948 10.0 0
36.814999978026 9.999999999999998 0
35.81999997705521 10.0 0
34.82499997482152 9.999999999999998 0
33.82999997189397 10.0 0
32.83499996997947 9.999999999999998 0
31.83999996880744 10.0 0
30.8449999653664 10.0 0
29.84999995945511 10.0 0
28.85499995397402 10.0 0
27.85999994892315 9.999999999999998 0
26.8649999462107 10.0 0
25.86999994357456 10.0 0
24.87499994259683 10.0 0
23.87999994660122 10.0 0
22.88499995102887 9.999999999999996 0
21.8899999571635 10.0 0
20.8949999600091 10.0 0
19.89999996204632 10.0 0
18.90499996352149 10.0 0
17.90999996600626 10.0 0
16.91499996715875 9.999999999999998 0
15.91999997188479 10.0 0
14.92499997375027 10.0 0
13.92999997734525 9.999999999999998 0
12.93499997850468 10.0 0
11.93999998002841 10.0 0
10.94499998159725 10.0 0
9.949999986495024 9.999999999999998 0
8.954999989828083 9.999999999999998 0
7.959999988999543 10.0 0
6.964999993333526 10.0 0
5.969999997993648 9.999999999999998 0
4.974999999569425 10.0 0
3.980000000476466 9.999999999999998 0
2.98500000136441 10.0 0
1.990000001791813 10.0 0
0.9949999998668106 10.0 0
0.0 8.99999999707699 0
0.0 7.99999999453562 0
0.0 6.999999988247249 0
0.0 5.999999986156906 0
0.0 4.999999984170651 0
0.0 3.999999989366146 0
0.0 2.999999991959556 0
0.0 1.999999994700419 0
0.0 0.9999999981915547 0
50.83807950299162 5.422230362713351 0
49.29302662911326 5.391788418346852 0
55.89675827978745 9.16712144489615 0
44.20173391535433 9.146340264981763 0
58.29998322926289 0.8456282015900164 0
41.15705225020719 0.8770569196399687 0
5.813693478519347 9.093584069037247 0
94.4578792827098 9.24549754674556 0
8.751852502355598 9.212121126601843 0
91.4542122508146 9.167612759664927 0
11.3217899485714 8.940279629460003 0
88.45541827174924 9.003141070826848 0
14.13481376654442 9.12838903992685 0
85.06227246370858 9.136513800501616 0
17.5981962034336 9.278908909520291 0
82.65883271950176 9.192991624493468 0
79.30195422589955 9.192555132370291 0
20.22923436962092 9.228793233507735 0
76.9499422018726 9.185445838880884 0
23.15539593962953 9.142722579635334 0
73.75292493055119 9.027775552419408 0
26.17612667957482 9.070210000827647 0
70.81818485881587 9.098778833456587 0
29.19854055488857 9.144824347448706 0
67.98487736098163 9.209204302315586 0
32.10104882253177 9.212784739159556 0
64.94855704288774 9.106518105934871 0
35.09652864307778 9.140343903531004 0
62.01954716294413 9.110138216302174 0
38.10145594691708 9.10627875151703 0
54.483625460167 0.8841954998436664 0
45.05719238621145 0.8673603679358691 0
63.29980986900121 0.926275529712687 0
36.12922550001059 0.8513812862116314 0
66.48134175786736 0.879876451113789 0
33.10893152275621 0.8600562452838089 0
69.47874717207092 0.8904665173261695 0
30.08182623090112 0.8878680059373513 0
72.48840723279784 0.8833093813907991 0
27.09201347291115 0.9056967408571177 0
24.12590713801287 0.8670594211392364 0
75.45035403187576 0.8577005412105058 0
21.22734363595657 0.8722625336249834 0
78.34461050664493 0.8923209522290199 0
81.42655394783124 1.191346831263394 0
18.51308320219642 0.8388647118015006 0
15.88151534163761 0.8620245484529602 0
84.48797199737476 0.8738806922843709 0
12.82164830678818 0.8570096071891873 0
87.47670631693296 0.8716520797635393 0
9.826908540526738 0.8788055299165969 0
90.45283595169249 0.856615414473864 0
6.821620175160676 0.9094319471725149 0
93.37290000007127 0.8627096430225835 0
58.76370695478708 9.132163848551242 0
41.21771424650713 9.097599924736194 0
49.80542723394741 4.667007160998234 0
99.12766382407287 4.300796398855083 0
0.9084265582911719 4.92560351040642 0
50.95112607071383 6.839638421860694 0
48.98785652219457 7.278736668672041 0
51.52565403338186 0.957991838636092 0
48.75032339059672 0.794554620423599 0
96.32136107469948 0.9142656095633853 0
3.865762770007361 0.8410699795833967 0
43.13049723005645 0.8623482768195306 0
56.22608341729198 1.218920579427313 0
46.20395942312916 9.1751071971006 0
53.8921415733702 8.980485499505749 0
39.16359145686865 0.8784114848673362 0
60.20308615143299 0.8359735835612199 0
0.7844335889496217 6.504579269003568 0
99.12512525429104 6.197557885525859 0
3.752114765213485 9.107073407912534 0
96.43403420357525 9.211010088597964 0
49.46318976751726 4.734731712468479 0
49.62046071047982 4.309973593472232 0
49.22030137607323 4.40638249542797 0
49.48701735901594 3.922901786425403 0
49.00624011937207 3.985953861830974 0
49.83393104863041 3.931119483958599 0
49.41050840623826 3.481732031057373 0
50.01609116142058 3.580483932053845 0
49.85838298861357 3.080401152357458 0
48.81892506291565 4.604231162070744 0
48.51988199254181 4.140219964477536 0
48.03925491293659 4.398826903473187 0
47.54912927071026 4.790426410048361 0
47.12094717546071 4.184760631745565 0
46.42072946262001 4.740053917314669 0
46.1098573581842 3.894895606168345 0
45.80258763882338 4.720042064833883 0
45.54965006834052 4.239917383232044 0
44.9974737216561 4.563644553370143 0
44.71908379371892 4.101478960083344 0
44.32261709260077 4.80866734254813 0
44.1517158431377 4.119675373951268 0
43.5001943639443 4.950515109971534 0
43.33428034841229 4.179561254312357 0
42.61771167550138 5.059218822396494 0
42.44212219646304 4.255828591755008 0
41.72692882597528 5.182479218843735 0
41.51185895964694 4.348446120793652 0
[...]
CELL_DATA 1277
SCALARS flow double 1
LOOKUP_TABLE default
0.5394966762936411 0.03956717250392533 0.8891473105472735 92.44525131951359 35.2859317439785 82.75621034153465 2.6156014114350135 0.413508384459014 2.565214465281453 13.19270738915711 0.07032310220189232 15.24720961439081 2.08028942211014 0.2562834053819669 11.134399189709976 1.0302406268746203 0.7100324798166948 15.78809912205027 20.977871454474954 0.0312868308067345 0.3053098996342633 55.74013088522196 3.042850738666299 0.35469074309066695 0.06279724901899086 0.052700451721094776 0.08023036595759764 41.756220923556185 1.0312789050821025 0.86400151066718 0.08299285777731262 0.1865963119046348 2.76167212284238 0.05931132706610856 0.05166554930995321 40.27149635810528 0.04107077386546322 6.900656962195553 48.9599180576653 41.85681543873488 77.65457421964163 86.09190346296737 94.80355329272884 2.2345435219802687 3.322886317914649 0.22476925984132137 0.03852419354718138 0.28589129361992915 41.65083404038841 11.451807348951105 0.12347765249195297 62.68328563936513 18.80425801948312 7.418758589072364 0.06706858673166328 159.2554360102639 102.87600747617869 3.443124168267657 30.96702659019188 0.20024679629066275 23.399060726691197 2.1980558280512756 0.08003037263352211 0.25699866631976126 3.16940385851631 0.1108291963692893 19.97381570171234 0.2251683145695583 61.0773657494652 9.528063161253979 34.75093449629299 27.667760937024145 0.2658600094565012 3.7964023142901744 2.9992293784114405 0.10782941934906937 1.9574381289011586 28.63235813349002 0.19487098869850725 130.84472536759404 2.336138555429036 74.54885335050791 0.08572547714219024 77.87192986231008 38.63240442787986 44.925855950267035 0.8872455868360367 27.26513532002345 7.547778567148728 132.60882751735002 136.05387167057734 3.964401238024596 9.319259149877546 61.81296212127752 66.20071650454248 0.133206017699673 0.24080813834781759 1.0017479547141677 0.3462534829445887 0.047737334297889344 79.42119335446345 9.097234851260398 1.8153234484150802 81.14313394021184 84.70749431012021 3.48277059379224 78.2097556783246 77.02148466471273 91.8912465003613 11.147803126743067 4.419283951140219 64.68963396981175 41.57113910733411 55.79312715206979 71.39853487490481 116.85106031995119 33.29438169375689 4.031736190186578 42.46421389558961 17.162231618696016 0.1473673591598233 22.817201485821155 0.08042839922196501 72.74664272133884 11.533159928354081 0.6425192071901379 73.64637126834701 84.16489130180767 0.07031177170448868 0.15529125739869828 0.09857881577456577 4.784898620959516 79.60408194209141 44.05125589824581 20.24664904201026 68.57036388931645 106.76720498395558 43.767779164648736 13.636740307688136 72.26612859369303 73.65905048283769 54.56711814831811 54.70117432958881 42.78643429575905 51.90711594686933 48.930027890307045 47.19747217996991 49.03155128885609 0.7942908331822142 2.7465226284868325 29.1584258856423 68.21977067864934 0.037649891735818154 56.64662235656538 27.61188559126781 14.62094908714248 0.29450031195819415 91.27571536673977 1.9166950013028665 31.17592378492611 42.139050614185905 42.36027979593651 2.4265669901320455 60.67066079226317 60.46059402613879 0.37050207722538775 12.277146411509898 13.497150595634466 11.124814897072394 77.95792862509292 36.58439602433405 34.387483507345074 0.298047148067384 36.53729299167065 1.988398923936779 0.29502192310087394 5.075989876707918 42.46040956015719 9.991262766809495 73.34657318003899 7.923345766074282 37.31583853975771 37.26298660778516 39.31355100388035 29.915273247445985 29.502924120601307 48.61703560357583 29.750083607795386 58.05483132501084 26.61236130466861 52.00246615163721 74.14282129424835 4.025411674339932 23.49503350766194 0.023276796468347523 15.148919372978364 25.029688522587758 7.087714519441214 52.678320930458845 18.53015440452378 5.420121580631897 49.8388717693688 31.517499516422404 6.605503661330912 37.19778989563109 16.522935961654454 0.24528380266273905 0.16770150160000385 36.716601449948335 12.708650939206997 6.937451999851288 3.2342351031733023 5.653986133137955 11.080622815371955 0.1947917014118754 0.11650417600356282 8.415861324595484 87.09700596177689 26.894414634502454 25.463199767084642 4.713720174849464 19.342788920890474 0.24715961018539037 1.1476085674563412 0.11311686159640919 3.8349648874460316 0.6920684715349897 48.481534806261955 0.14612277708178004 8.165228608854713 1.0076373188637615 4.635959452346719 0.16912186574481158 0.05881988186962625 19.662854456599206 13.221874489382603 21.891371414114733 0.521270891566187 10.333325236123324 0.9769189707822353 16.627100505153944 16.79373605036688 0.25663359038885986 1.60897293734757 0.4820159256117442 0.5309181245389332 0.1058832248299816 0.25331945865517125 2.370192833627798 0.5624090606126874 1.4813203852400576 0.06265983073537955 0.10799138129129514 2.5769804346889704 0.16637785334298527 1.340080932548723 7.74229742551607 2.1500721663530262 7.63948377258713 0.36931995768197146 10.205217550296787 0.11867262129351197 1.58972563636671 0.7883364390518129 13.700016504341653 22.11501500419912 9.668880043110217 9.048587531883708 1.406073002820722 3.5100454328840422 8.261072225920945 0.5971171343746948 7.471936375730967 0.17993890306701307 8.642806790424212 2.2124221699790554 6.599616326732958 2.521471988676113 1.5677680010992046 0.2086852946178629 0.3918465405636252 0.10475787040940787 2.01460358281839 0.08955611162697728 0.1107395144325789 0.4622911397927542 0.08920105918325387 0.0987990065067772 2.1977616389639443 1.8250716111202778 7.343431379534031 4.769532207368668 2.0977561432375156 1.7917293850594058 0.17415355487227333 0.1766193693519645 1.8816888081095176 0.19128320258874434 0.09773438839186983 2.2907992962364156 0.5337977008225523 8.97897824294736 0.9713846524458503 0.5440899406289099 0.2246917852303283 0.20248035176343335 0.27427459922006475 1.3435748308503423 1.1385274578444695 1.5555751621365588 1.3198863832790406 0.4616982180566346 0.12665019262176563 6.582089096436606 1.9936915341561026 0.286070857298608 2.7918835666786306 6.465933944990212 0.49576171010491404 2.4993198436131547 0.08266146649474747 0.6734895555322475 2.007652965461422 1.8909717661203085 0.4284337520237467 0.3636997683549583 0.05777806419483725 0.13661868186685083 0.5947458305784867 0.3091389347674549 0.3078305565761203 10.428643775765227 0.7090764159366703 2.70690682410533 0.19197856816487902 0.23642435698221975 0.18038682245386256 0.17714192476395182 1.6224678560002674 0.597382388052551 0.7236495577887575 0.14015322637108157 2.541094353231089 0.4208547671277826 0.3581942835883549 0.18871835392565958 0.17042553700016044 2.6568922813640423 0.15246256635489142 4.881634080489792 2.0618602196668587 2.303386844240747 0.6832387748418233 0.2150361143638011 1.8794334845933613 0.7357127541721196 0.09469470958537017 0.4983618755517164 0.20769107258883573 2.8399973591513903 0.06922228769458749 0.0680181421660171 0.06755235394649438 5.224708133592829 2.6432327834567797 3.5694220934249534 0.7159666808811781 5.6376910759378696 4.037824963496753 4.272216267110095 3.2191580532828943 0.07335588208356428 4.1059085130920066 0.07235597488033674 0.072743870031154 2.5231152893836257 1.2723946409012392 0.8238644518290162 1.5798058636956098 0.8007466081215086 4.409271168921417 2.749821242783902 0.18279517246285665 6.495234443457412 1.7269611944626526 12.215550432174103 0.43073772671954624 0.6809781958381997 0.09099565656869656 0.15952560456169254 0.2640478918009863 1.1641150110268548 0.2548754524974201 0.4121905305243368 2.949869336523333 1.0929057955632697 7.055203474436092 4.72525726725673 0.13349354001392683 0.10768762464517179 4.344623264513689 5.2000303619653865 0.708808817041047 0.9084235958842777 0.34467408881380984 0.12611034559699905 6.031103771439712 5.5662863448476525 1.7451378996680715 0.31819771031065935 7.726267372690947 0.490979385654948 1.5606774401229744 0.08910646383624875 1.9853516869098662 0.4330747276259575 0.060885165743913776 3.4470475371074834 1.3535693316758985 0.9419297921556724 1.4820294011429158 0.18950115184085728 1.9336289844271106 0.11086653991836835 4.868589118616458 0.1513526849321512 2.342314329787609 1.650498879240752 0.251019143851121 0.5166397663371602 0.22771485913702977 6.7048342410740736 6.091753195046403 0.09364625978822115 2.601637746279539 8.897468246049053 5.52419320589628 1.8377066860214748 0.18208761579649957 11.972202122221965 2.1555494291204527 0.05276477089347734 0.05040980852640845 0.07578519460523003 0.3738440517353565 7.572857078657122 0.1624873506918181 0.0420515718941831 0.3108822886976161 0.4825434615502588 0.045077915572938304 0.028794347792994442 0.04367866995930761 0.033497719281541674 0.030694286688108256 1.7567628265423914 0.12948080881003685 3.11270426226964 27.141869541908843 27.135641299894267 8.978192456624457 0.8565912706614842 0.23866624647439041 0.5941165100446606 0.8276797120807675 0.49668246452159626 2.164986703960077 0.19957101860906148 12.942739958008447 0.09411912251436212 3.1561469554026025 0.2084593626119033 0.059002424647388696 0.28803679155688316 0.6037705497134789 0.22933953691375786 0.15822068265279235 0.19422879088482464 0.3398269782699307 0.3967975064959704 0.46295326034624434 0.23655369466169254 0.5775240176476863 3.040497564050425 0.8791638108587863 2.0244897703316687 1.0329557592609817 0.33428146116733654 1.2460081605517628 0.19030069353577578 0.22038978243999244 0.25747754073927076 0.2979986639998503 0.34179650128820055 0.46775427926463464 0.5378817899949428 1.4859758189700079 5.516580603790679 0.2817652259973524 2.4762651651770264 0.9209741864448929 0.6821939632855233 1.072554957161321 1.676728474346357 1.2461546343609757 0.1353952329948224 1.4347178118921236 0.8644006763724636 0.16659416883341008 0.6627463081040158 1.8891674114343313 2.5116850267494577 0.800505974566135 0.12804240317595825 0.11685539767238888 2.230595423883994 5.527639493166713 3.9003384653508624 0.1446814958561677 3.0082300458835607 4.224490618800119 3.8762327349036463 2.6675205727702624 0.1439202414148814 8.156918069103599 0.07248501945659203 16.30522679284843 1.0069072206432002 3.8819350683150953 1.0567010919681366 0.3895436871242702 0.10012110957453285 3.2204186299544495 4.530418438896895 0.11877213482558499 0.10102965225333012 0.5740594778436106 10.58166672465459 17.12892693790244 0.1045762778537969 10.625701056933078 2.6054780181333768 0.9131520575878788 17.008537171870113 4.62701773103861 3.3206389812602866 5.273352101626471 0.10164304007762263 6.105247624919718 0.7989389254426565 5.3960745975661455 0.7957557832456408 0.06408824523643337 10.515727227134613 0.12714136290933517 10.83960167221561 0.08688333717876046 0.08468344514064088 0.08755367043802043 0.11583659013796313 3.1600607753196592 6.281014971064656 0.060892001299789264 0.3337980968229562 0.5533864206787543 0.2227897214673364 0.08940584270514872 1.8687407614962581 2.315725896774381 0.13600821444136074 10.933899019791536 0.06984510455860916 3.6240907356519196 6.998691915116731 0.30802344609939003 0.08609139350968467 0.3485541958241825 0.08402185025254592 0.9328961166712874 0.9106715299959085 0.13040161480251009 0.13055208868378226 1.514865657101187 1.2908346404818192 0.23845536364507736 0.36066617249347604 0.9379015334801317 0.9840268182080969 3.537793500200901 3.865639735257321 3.7451418082593904 10.611380782730224 7.015958222817525 3.4955229742870793 18.5060862923237 0.08754026249053452 0.8590954654742988 0.10086178737275335 3.304234114501071 8.931898620198305 0.7317322415561961 0.7207146680513831 3.034146485320524 0.6321727663200225 0.10766659737792929 68.92718648380213 7.249605352389319 0.06646182347826367 0.05540625649403324 0.08346582386751997 0.11005072968562299 1.7692208721508875 2.0705215495032903 0.07025242562396965 0.053039834747252414 0.2749562515413676 0.07981724856460132 4.0819363784404645 4.400974631056341 5.1592763021929455 0.09952288781356139 2.8732263439654155 0.1527344446099886 17.2331631262772 2.7446743666851905 1.0486045356024647 0.22677136177410798 0.4036964067366374 1.0811677407337033 0.6354164087315857 0.3902183759338117 0.9340433676779847 0.08490681203710762 0.9327766578858797 0.07596542029571288 4.327683537793557 2.338894683244633 0.155042541432503 3.7152941619641546 2.595109419129794 8.171904483452561 1.211665101872432 0.08163423329437262 0.1172863058746704 1.1570774821009868 0.09732394168896479 0.11850724591286999 0.07901146016294804 12.553316719476927 9.462576682638613 0.2109999333852174 0.041745380599937994 5.1535909814463245 5.816972272225878 4.3941348510591 1.375471953826027 5.049245822437039 1.401595280189375 0.1361391721939251 8.698151393718266 1.0889592557840182 0.4449966359141568 1.0987022649203229 0.18111775877030528 0.0893882432310656 0.09209656794671733 0.070605121425678 10.475796591339556 0.07534890345864141 14.484015907814593 0.06752914914724355 1.1575276266787013 67.89611233761181 14.582573604752854 11.616581747112818 21.780299132894932 16.338194340249746 12.511054706291992 16.6715941487335 16.13632730679357 11.30230856941879 21.451374948004155 10.89167434124318 16.26989894591544 11.620461783285599 12.69653586583104 5.93041433643441 0.3251141040654756 0.0882037593637007 91.7413676070086 19.686138886021343 17.421422462881786 13.24747045043245 14.937821016415226 76.09704755938316 15.421612574667785 0.5853786526703686 19.943664264725122 4.824197130448884 0.18013477532595212 24.871352171143904 35.905593749015125 26.239768053669593 19.036312527026624 21.17931160154196 21.258771261894186 18.449541284656103 22.51290773268409 25.257220070107028 0.1247913633652165 29.613325528670696 0.678921144207406 0.17781678974222279 31.79762290701137 6.511199976773078 58.51171200800714 33.54794079642883 0.3109072335273448 13.751087069190497 29.329952405776087 113.42744528185023 126.88284068173651 4.45760115984449 2.4913638356797176 0.18280081387842181 28.374823942387717 32.33118728695502 0.20697988761656252 2.994261590424634 0.370180450088334 9.09210677063732 44.556376312851526 29.58609036315797 150.79841760009614 19.185591039152136 21.063510203503373 14.232287773667462 44.35979419563579 0.05574129014140808 0.9692863907693468 0.42090187572099985 0.27769120264859043 18.864041675414576 30.57021250357518 1.7021578657061451 66.29933670751382 0.1573619488901969 4.336971356289842 24.214315067389283 12.253304354844563 15.125516131444847 10.535675129606506 40.01230355641731 105.24575178997347 5.579995936911471 37.242652068736405 1.3082954434458207 0.20256866670681287 23.990270945056093 6.617960905893976 0.7592198109561751 31.68156459478179 4.776859496507744 33.871753904473934 60.12057569430213 0.05395293860583524 3.23019988765065 26.962066306321567 32.155847894773636 13.835995694112833 49.88284587627411 88.6917875831691 3.7964390102663748 0.15754628926874217 40.460160468213765 34.88713748638888 0.7446958348509092 0.3974172579917772 32.28962219849916 5.222678630831363 21.00591713552343 1.0345026628310174 0.2527630992289651 66.6792403718944 38.940907011935856 24.16421502534145 6.113450716336662 8.014673784629894 0.0929881902244678 0.21967114691926878 26.312502000131772 1.1556240128358195 0.4438384060050128 0.38034963897734964 98.06103287439417 2.1175565633078417 51.90952475994453 0.1732250748728702 0.17221922462179107 0.4741228026957793 3.445575005402421 25.91135516605894 0.13556966375710616 12.41289499307947 0.8363020904116679 1.1882899245456993 72.43219000402571 50.34027570864233 43.416200191183336 0.299666673622209 15.373211326014935 1.6840273795802438 42.39744049655498 7.459110379421591 29.206730973924575 0.35440060837581955 5.912538202047648 60.50266395700035 73.24009325364516 43.33480451335367 74.94845349158167 53.736378878292975 0.3024280693083463 0.28707920200832293 39.95222423758131 0.049696738326493926 8.64610040268157 9.935537645889879 46.10791624959053 16.053442079309363 0.3241907871363711 0.5563113649199357 101.23211420655733 63.07788670063062 48.38256476759213 79.71482728798347 42.08544146697914 0.7372669337138871 23.601762720967326 46.51370698283995 68.17599323831077 0.4256113024622265 0.09546924631011958 1.6630693652727264 0.10400021989066843 0.1207519795560033 5.339106861354562 0.07988904221998677 30.16131416873898 0.589784970983845 0.07536086156298649 0.48368942061467796 0.23860277955313486 0.029711009528248886 0.02012804139206261 28.52940499727512 0.08438716940845882 0.07186619396385507 0.06771337670294678 3.3674509076065933 0.1562508032042727 0.4950519020853849 1.5675929206562114 63.126391601242126 1.4970967019392265 84.24260237965159 23.880976252558643 7.160975883921226 62.9262684225262 74.90935505630924 11.36940696487108 4.769920284300757 0.2706598024774502 132.71757390878926 1.6358578878480112 55.22131831045556 0.32421681282878334 55.4553746354347 0.7539736050450676 0.2343765824543779 6.1809436281394206 0.04710185015012871 0.9093160892115552 1.4993624118578188 1.6664139043467143 4.951814452905211 0.43545092348991177 63.012915514623415 7.002650428370716 9.11615727851599 7.753773039760933 58.85993535350289 11.796657479245551 0.038703653009499746 0.07125467396331034 1.1247905308160813 96.25686883993954 7.855188893288433 0.415113359143879 0.21257248959702216 0.20381489733172575 4.847990013467897 0.07736455366129771 0.07755844000229345 3.421502012896954 61.256363227717664 2.4093465286290567 0.0782894859584585 0.4660848379791517 1.1383748882482165 11.789730025694405 66.56942812295695 0.09003643973184458 54.15809125204646 1.4046662216569525 6.134348846860439 1.461250989648291 4.525936375353124 0.8909721421100423 48.718500693058985 52.581068131569936 0.008356333483029455 0.006358034839622699 23.9601141660696 5.570083967065158 0.1602175508756137 0.18046294646205707 71.61414116712795 11.041577281201691 55.85790556015012 0.13925806204811347 3.0249578847011227 1.0671689201899806 3.8167788675282757 3.890229532689288 0.6724530165410753 0.8519495009336928 0.20449181356277257 2.112150683705376 0.0483004308379473 0.04567396665165385 0.558159401949078 0.15988975452876986 14.390711169379845 25.04236104117928 32.28393863478428 45.26259392230381 9.470371438620813 1.0044812377726726 0.9535042136398658 37.000095225475114 71.83418434055629 6.007358631603721 2.2235358293137755 6.168106934345852 0.44538208418459113 6.513716877878454 0.34395005307032195 111.32761649215571 7.057255748617311 84.96806032616968 5.7860579619113395 12.163030373580638 26.77581652473518 0.1291227860199238 63.35849068674112 0.7869030047937743 162.32453250188723 0.32210571642850316 70.86420524970772 25.63342402380741 59.00189647550169 1.2572442270987452 76.0995611505649 79.54678968414579 9.513402813313057 21.76013419131303 0.49275801070069675 68.87159679150369 46.462034411076004 110.34058207834323 56.85816208637484 44.83747051428085 0.24653134611777447 63.664126047718135 35.35317609035488 0.27581983084997075 66.25620223995537 0.603119644327838 7.83431906178184 104.49353276685837 1.2890322105762007 7.614086372577357 0.07531399060650809 63.367079166232955 0.529627610520931 5.635606009007141 56.37290260213103 35.78266221684974 0.06908337800708915 64.26578769348154 100.82115677567408 65.47416334857579 135.40931998098893 71.33945230896735 0.5602864197316347 1.4443169790681731 1.1230158882754904 98.92485616816145 119.65436498924551 0.05636690098779471 52.72691882720111 73.02405248355389 6.238165468231637 7.258336105224341 66.31113354637445 1.0486838351183034 4.141604504134443 58.0331158064693 67.77010203739422 0.29514974944409916 0.36049220337332444 21.976354781889253 32.05461130500105 0.24977698059304107 49.59331204825324 0.07992243031048853 0.4309046619283449 0.0783976445767586 0.5986158875048344 69.10258762423199 33.65447533131901 0.13176132311728006 0.107018021084 3.08234010809018 6.785459196654764 1.1873669001090212 56.53096341553086 61.41504004901606 68.17001558308671 1.897869524644808 69.67332523231228 15.52179211681537 1.224679859454305 0.11089451102303044 40.29081396830759 176.73844039160898 1.0413527341119695 82.6922103704948 0.2782768963640887 8.516890716268925 0.6289771164936451 0.3957290909405278 65.91437399971672 35.96981300980105 0.7301967992259858 0.30024664092517633 30.244129602041887 0.32716504882115255 28.47621817935