# vtk DataFile Version 2.0
Really cool data
ASCII
DATASET POLYDATA
POINTS 5120 float
0.0 0.0 0
100.0 0.0 0
100.0 10.0 0
50.25 10.0 0
50.25 5.0 0
49.75 5.0 0
49.75 10.0 0
0.0 10.0 0
0.5000000004713866 0.0 0
1.000000000927485 0.0 0
1.500000001363928 0.0 0
2.000000001715368 0.0 0
2.500000002054665 0.0 0
3.000000002393964 0.0 0
3.500000002774895 0.0 0
4.000000003277256 0.0 0
4.500000003692882 0.0 0
5.000000003976668 0.0 0
5.500000004274332 0.0 0
6.000000004780162 0.0 0
6.500000005285994 0.0 0
7.000000005791824 0.0 0
7.500000006297656 0.0 0
8.000000006803486 0.0 0
8.500000007309318 0.0 0
9.00000000754453 0.0 0
9.500000007717295 0.0 0
10.00000000820231 0.0 0
10.50000000919386 0.0 0
11.00000001005358 0.0 0
11.50000001089247 0.0 0
12.00000001160647 0.0 0
12.50000001222332 0.0 0
13.00000001261813 0.0 0
13.50000001320723 0.0 0
14.00000001448328 0.0 0
14.50000001538463 0.0 0
15.00000001655659 0.0 0
15.50000001749263 0.0 0
16.00000001844256 0.0 0
16.50000001885125 0.0 0
17.00000001942646 0.0 0
17.50000002026536 0.0 0
18.00000002147896 0.0 0
18.50000002276195 0.0 0
19.00000002303186 0.0 0
19.50000002330177 0.0 0
20.00000002411291 0.0 0
20.50000002470549 0.0 0
21.0000000253501 0.0 0
21.50000002582124 0.0 0
22.00000002645197 0.0 0
22.50000002704107 0.0 0
23.00000002832406 0.0 0
23.50000002920459 0.0 0
24.00000003004349 0.0 0
24.50000003088239 0.0 0
25.00000003206824 0.0 0
25.50000003379531 0.0 0
26.00000003552239 0.0 0
26.50000003724946 0.0 0
27.00000003755407 0.0 0
27.50000003846583 0.0 0
28.00000003923187 0.0 0
28.50000003918259 0.0 0
29.00000004102069 0.0 0
29.5000000416202 0.0 0
30.00000004290318 0.0 0
30.50000004300656 0.0 0
31.0000000420691 0.0 0
31.50000004118022 0.0 0
32.00000004132176 0.0 0
32.50000004149453 0.0 0
33.00000004170198 0.0 0
33.50000004287395 0.0 0
34.00000004384817 0.0 0
34.50000004249437 0.0 0
35.00000004244509 0.0 0
35.50000004239582 0.0 0
36.00000004245755 0.0 0
36.50000004329645 0.0 0
37.00000004513455 0.0 0
37.5000000477498 0.0 0
38.00000005036505 0.0 0
38.50000005220315 0.0 0
39.00000005304206 0.0 0
39.50000005353401 0.0 0
40.00000005333207 0.0 0
40.50000005421954 0.0 0
41.00000005567601 0.0 0
41.50000005740308 0.0 0
42.00000005913016 0.0 0
42.50000006085724 0.0 0
43.00000006258431 0.0 0
43.50000006431139 0.0 0
44.00000006408864 0.0 0
44.50000006464304 0.0 0
45.00000006637013 0.0 0
45.5000000680972 0.0 0
46.00000006982427 0.0 0
46.50000007155137 0.0 0
47.00000007327843 0.0 0
47.50000007472796 0.0 0
48.00000007472724 0.0 0
48.50000007551063 0.0 0
49.00000007675892 0.0 0
49.50000007837843 0.0 0
50.00000007921737 0.0 0
50.50000007611497 0.0 0
51.00000007266216 0.0 0
51.50000007051736 0.0 0
52.00000006870559 0.0 0
52.50000006549217 0.0 0
53.00000006532495 0.0 0
53.50000006340217 0.0 0
54.00000006157653 0.0 0
54.50000005975088 0.0 0
55.00000005792525 0.0 0
55.50000005615513 0.0 0
56.00000005402418 0.0 0
56.50000005272938 0.0 0
57.00000005175028 0.0 0
57.50000004992467 0.0 0
58.00000004809904 0.0 0
58.5000000455934 0.0 0
59.00000004519715 0.0 0
59.50000004296908 0.0 0
60.00000004114344 0.0 0
60.50000004036905 0.0 0
61.0000000388123 0.0 0
61.50000003797199 0.0 0
62.00000003731208 0.0 0
62.50000003570157 0.0 0
63.00000003389675 0.0 0
63.50000003122457 0.0 0
64.00000002933822 0.0 0
64.50000002551418 0.0 0
65.0000000194697 0.0 0
65.50000001766836 0.0 0
66.00000001634231 0.0 0
66.50000001490875 0.0 0
67.00000001295126 0.0 0
67.50000001159053 0.0 0
68.00000000965386 0.0 0
68.50000000539964 0.0 0
69.00000000128068 0.0 0
69.50000000200856 0.0 0
70.00000000029395 0.0 0
70.49999999907897 0.0 0
70.99999999758295 0.0 0
71.49999999571567 0.0 0
71.999999994433 0.0 0
72.49999999486944 0.0 0
72.99999999363362 0.0 0
73.49999999042018 0.0 0
73.99999998851476 0.0 0
74.49999998793812 0.0 0
74.99999998650452 0.0 0
75.49999998433195 0.0 0
75.99999998407449 0.0 0
76.49999998046903 0.0 0
76.99999997858791 0.0 0
77.49999997992639 0.0 0
77.99999997841302 0.0 0
78.49999997601142 0.0 0
78.99999997594827 0.0 0
79.49999997767536 0.0 0
79.99999997940243 0.0 0
80.49999997943296 0.0 0
80.99999997760733 0.0 0
81.4999999745049 0.0 0
81.99999997152742 0.0 0
82.49999997199166 0.0 0
82.99999997233094 0.0 0
83.49999997405803 0.0 0
83.99999997578509 0.0 0
84.49999997678707 0.0 0
84.99999997698411 0.0 0
85.49999997662951 0.0 0
85.99999997813454 0.0 0
86.49999997747813 0.0 0
86.99999997647127 0.0 0
87.49999997564485 0.0 0
87.9999999738192 0.0 0
88.49999997199359 0.0 0
88.99999997016793 0.0 0
89.49999997110397 0.0 0
89.99999997227594 0.0 0
90.49999997108868 0.0 0
90.99999997217738 0.0 0
91.499999974182 0.0 0
91.99999997525684 0.0 0
92.49999997841331 0.0 0
92.9999999807649 0.0 0
93.49999998216586 0.0 0
93.99999998337596 0.0 0
94.49999998384015 0.0 0
94.99999998456803 0.0 0
95.49999998665594 0.0 0
95.9999999888132 0.0 0
96.49999998808393 0.0 0
96.99999998926977 0.0 0
97.4999999914687 0.0 0
97.99999999325128 0.0 0
98.4999999933824 0.0 0
98.99999999655279 0.0 0
99.4999999981827 0.0 0
99.99999999999999 0.5000000006396631 0
100.0 1.000000001299887 0
100.0 1.500000002317897 0
100.0 2.000000003487696 0
100.0 2.500000004137077 0
100.0 3.000000005358917 0
100.0 3.500000006945049 0
100.0 4.000000007906681 0
99.99999999999999 4.500000010498953 0
100.0 5.000000011460584 0
100.0 5.500000009022157 0
99.99999999999999 6.000000007850081 0
100.0 6.500000006348403 0
100.0 7.000000002851798 0
99.99999999999999 7.499999998487827 0
100.0 7.99999999873822 0
100.0 8.499999997583487 0
100.0 8.999999998597158 0
100.0 9.499999999107754 0
99.50249999664918 10.0 0
99.00499999876271 10.0 0
98.50749999530431 10.0 0
98.01000000040158 10.0 0
97.51249999884101 10.0 0
97.01499999819632 10.0 0
96.51750000018497 10.0 0
96.01999999953335 9.999999999999998 0
95.52249999699089 10.0 0
95.02499999584315 9.999999999999998 0
94.52749999523319 10.0 0
94.0299999934887 9.999999999999998 0
93.5324999924381 9.999999999999998 0
93.03499998875768 10.0 0
92.53749998517786 10.0 0
92.03999998264233 10.0 0
91.5424999825597 10.0 0
91.04499997932336 10.0 0
90.54749997866136 10.0 0
90.04999998153818 10.0 0
89.55249997951961 10.0 0
89.05499997562407 10.0 0
88.55749997417101 10.0 0
88.05999996892585 10.0 0
87.56249996670954 10.0 0
87.0649999651871 10.0 0
86.56749996280423 10.0 0
86.06999995614703 10.0 0
85.57249995610951 10.0 0
85.0749999505278 10.0 0
84.57749995115991 10.0 0
84.0799999490754 10.0 0
83.58249994831624 9.999999999999998 0
83.08499994748769 10.0 0
82.58749994242991 10.0 0
82.08999994481754 10.0 0
81.59249994848538 10.0 0
81.09499994708784 10.0 0
80.597499943796 10.0 0
80.09999993969228 10.0 0
79.60249994018211 10.0 0
79.10499993698046 10.0 0
78.60749993380307 10.0 0
78.10999992986937 10.0 0
77.61249992909634 10.0 0
77.11499992722001 10.0 0
76.61749992855293 10.0 0
76.11999992753704 10.0 0
75.622499928183 10.0 0
75.12499992864855 10.0 0
74.62749992538446 10.0 0
74.12999992733147 10.0 0
73.63249992597903 10.0 0
73.13499993379288 10.0 0
72.63749993446315 10.0 0
72.13999993679872 10.0 0
71.64249993910654 9.999999999999996 0
71.14499993902395 10.0 0
70.64749994084953 10.0 0
70.14999993420616 10.0 0
69.65249993689218 10.0 0
69.15499993857205 9.999999999999998 0
68.65749993687265 10.0 0
68.15999993893418 10.0 0
67.66249993663806 10.0 0
67.1649999371383 10.0 0
66.66749993844344 10.0 0
66.1699999432059 10.0 0
65.67249994241897 10.0 0
65.17499994397048 10.0 0
64.67749994295106 9.999999999999998 0
64.17999994384685 10.0 0
63.68249994625879 10.0 0
63.18499994575982 10.0 0
62.68749994432067 10.0 0
62.18999994695464 9.999999999999998 0
61.6924999500223 10.0 0
61.19499995449505 9.999999999999998 0
60.69749995735798 10.0 0
60.19999996026607 10.0 0
59.70249996208818 10.0 0
59.20499996359457 10.0 0
58.70749996309563 10.0 0
58.2099999659447 9.999999999999998 0
57.71249996743375 10.0 0
57.21499996891936 10.0 0
56.71749997135385 10.0 0
56.21999997508937 10.0 0
55.72249997649861 10.0 0
55.22499998164448 10.0 0
54.7274999841882 10.0 0
54.22999998632081 10.0 0
53.73249998912996 9.999999999999998 0
53.23499999151503 9.999999999999998 0
52.73749999652731 10.0 0
52.23999999229871 10.0 0
51.74249998848641 10.0 0
51.2449999934588 10.0 0
50.7474999992378 10.0 0
50.25 9.499999999293099 0
50.25 8.999999997909656 0
50.25000000000001 8.499999995624155 0
50.25 7.999999996044826 0
50.25 7.499999995424663 0
50.24999999999999 6.999999997562707 0
50.25 6.499999996925198 0
50.25000000000001 5.999999997536689 0
50.25000000000001 5.499999999518613 0
49.99999997773051 4.999999999999999 0
49.75 5.500000000741595 0
49.75 6.000000002142386 0
49.75000000000001 6.500000001270688 0
49.75 7.000000001804115 0
49.74999999999999 7.500000002059986 0
49.75 8.000000002437291 0
49.75000000000001 8.499999998521153 0
49.75000000000001 8.99999999830865 0
49.75000000000001 9.499999996968576 0
49.25249999786197 10.0 0
48.7549999973858 10.0 0
48.25749999407857 10.0 0
47.75999999293629 10.0 0
47.26249999277931 10.0 0
46.76499999289642 10.0 0
46.26749999384968 10.0 0
45.76999999350534 9.999999999999998 0
45.27249999177671 10.0 0
44.77499999060667 10.0 0
44.27749999031091 10.0 0
43.77999998939067 10.0 0
43.28249998829694 10.0 0
42.78499998627341 10.0 0
42.28749998489519 10.0 0
41.78999998481454 10.0 0
41.29249998253426 10.0 0
40.79499998166953 9.999999999999998 0
40.2974999819844 9.999999999999998 0
39.79999998116129 10.0 0
39.30249998198269 10.0 0
38.80499997961915 10.0 0
38.30749997822706 9.999999999999998 0
37.80999997613414 10.0 0
37.31249997439162 9.999999999999998 0
36.81499997273237 10.0 0
36.31749997263785 10.0 0
35.81999997124576 10.0 0
35.32249997026999 10.0 0
34.8249999698424 10.0 0
34.32749996920663 10.0 0
33.82999996670431 10.0 0
33.33249996713021 10.0 0
32.83499996547442 9.999999999999998 0
32.33749996451255 10.0 0
31.83999996458456 10.0 0
31.34249996385859 10.0 0
30.8449999633061 10.0 0
30.34749996205277 10.0 0
29.84999995949494 9.999999999999998 0
29.35249995697874 10.0 0
28.85499995397682 9.999999999999998 0
28.35749995227942 10.0 0
27.85999994906238 10.0 0
27.36249994887418 10.0 0
26.86499994735372 10.0 0
26.36749994535619 10.0 0
[...]
CELL_DATA 4888
SCALARS flow double 1
LOOKUP_TABLE default
3.2167684600790216 2.975250226250025 4.0475179816125175 16.41134276418032 3.7974099399455468 21.63208262484873 3.46280009881256 0.016729365252569982 0.1474659109425794 2.226497067716241 0.23928415654539736 5.127788118060114 0.025209836072182874 36.72749678577015 19.534845060557668 1.6840772930081507 0.07392374812035617 4.803862295941327 0.3851528232798359 31.31515067597188 2.583387330562721 35.54639971354776 4.379915093834385 0.092058306488231 0.19113133169545632 2.8163411696953524 1.9865833122298273 49.090326911164425 5.34820805707214 0.08763588841882775 49.36429433685757 9.453299245354131 28.79820959309748 3.518609851720464 81.67682358354631 10.990162079814759 56.61145015753891 1.504345517571208 19.123015332145428 6.0736683699692335 171.2720245332075 53.879481369294254 62.538677717520414 0.1259019681861134 2.7195979951298224 69.591726274773 0.11296532817136834 0.6446464007902165 12.820314019261453 0.4166174554402051 21.8570212646947 5.550183216719691 1.3175536868238482 1.3604715406127035 0.03252268600814946 66.78433905564209 143.3049692530113 69.32484750232071 2.610663015883372 4.747221544273617 77.65911501405458 0.4507418058268333 0.0937018057716902 0.09683747992876915 26.496216093570617 0.5726837458684066 0.0776477707951298 42.52789632717343 0.5295664328322423 145.76696859104973 4.754330313713742 3.2261425952118814 31.476426716372544 156.81372944614887 0.10086068589977752 2.3820636948851437 21.075138286258834 46.3056567498278 7.293229794567473 0.14289014011715917 4.906391538443088 0.0885130659489965 10.55215741136229 0.1589651558659063 7.946184163380218 15.736182477063236 0.029501357943191874 0.1396574152937987 7.106887072835832 0.6609812357928462 1.0767484121252089 9.83384487537953 0.09630368571093276 40.39314319627287 0.03591888747525536 71.78461602099348 0.18957718734327736 160.89025254211654 0.17020539793749606 23.11268051377276 19.406871126405534 0.14863297414361587 0.4044891903440398 0.48809448064663175 2.282409143928262 0.47306997373746756 33.89468172208171 1.086991894259741 0.10687715082150927 6.373966571163981 11.128885446481046 0.9211964245809087 1.258529021789401 4.273298769737335 5.027329398769775 3.042363374877424 11.327224196478705 3.384140868685534 106.44567704483764 1.6009091399979705 53.367290169356814 26.906264455548776 0.25566582756405526 0.5103828153629183 37.74903408522873 0.17544539636888334 10.644568643037216 16.949718578748595 12.209906880767461 2.438514605400449 44.37407491348236 52.314184497233306 5.294184240340953 7.1375246119696385 0.11299625186297897 1.4481362812786165 13.475255249344062 0.2330773413691393 130.3394729925903 0.6889304967475776 5.772661012685651 10.491769177728958 15.683201215267518 10.404718310133019 0.10671234008564132 59.482895608529816 8.78422593289398 1.834096814718907 15.667515396220386 1.5647596595259736 0.729303341288142 0.9784579995379247 32.745409627523074 19.173748252783017 12.083974517117007 15.49826552052177 82.76922951504356 0.2053919046716018 6.207429615917081 82.12196681615035 1.1450323102989794 26.10439456117845 0.6246558292126969 0.07743307127526995 0.04492106601749376 70.9297573314616 0.05263810578037911 1.5350745770017984 5.5583620260100846 33.942725849088724 0.09258552084029979 10.152450130706583 8.321917890665663 72.49416358108944 65.45294026170447 0.07841771455192799 12.560087003484098 0.11667141534579113 0.07841380662189737 11.961729895898465 0.16258411163438932 3.1049107981464634 24.69929999551529 0.8431018777190735 70.0145478494706 0.5348558949469402 7.288463302142536 2.611510359349976 0.09237269614311085 35.770023383760105 0.15453454256115057 48.35045815913617 13.57041885258255 39.52994447101413 0.23555098531947175 4.119153298421038 18.093932031777054 1.2425514905430652 0.4694509691307363 0.08822872119226761 190.22911595550886 7.198321325460699 0.09023468810190835 100.42770298543309 1.3393036047834643 2.4138964414587853 45.572757751283326 15.291436141176952 65.56301468279477 13.447621474821768 124.9960573037061 11.847003254635256 11.500051694432994 0.5121401098726566 15.55934207808342 56.594292954987694 14.532115071768434 0.050246541406438375 63.49962343121738 0.06891851506249211 50.932071206217394 9.0376818007018 0.2770807005323515 29.12188454477653 0.363377539219106 7.6883871361712615 17.802068231608327 0.5286501274856973 6.068352672806974 0.6077022242012433 10.028871198416432 0.09816944663555592 66.42732370996671 83.74842198492408 38.42471446022404 0.6272929593255095 57.88273296054459 30.870221630405098 81.56580822960281 17.77788829571311 2.14969410233019 22.46744439244742 5.889854957562485 4.682757335143708 29.65769366097942 1.2380472702441996 21.11535042367499 0.5750220856062217 73.36423539711755 55.52774957035066 0.4036654328349537 40.892892523729934 3.820576938115211 26.512470320939432 26.481152000356882 0.08011941998687788 0.3744532200733071 30.147598921800533 1.4038872352067098 20.63810006829456 53.45620505456621 7.708369144805914 0.06026309758348434 1.3563490882387716 14.171369769152834 6.278929228111262 4.595221800499226 0.08270742936296051 0.3465661376907736 64.4899120224349 0.841634592953705 20.01115338202516 0.15663481693362138 25.1648955166284 10.497292946250969 20.772456191447297 14.820230026325797 0.07369184384527083 25.067020314562665 0.06714756363910931 0.06489377800443522 56.7151857050272 0.11078098422839729 0.11301470255161682 14.953525522686478 26.05995946025716 0.24839856088445011 27.536983073115593 1.6410114160751237 9.025032121999384 0.34649923716321224 34.93060257614351 31.52402910702961 1.126410835193765 0.23175000889663216 1.5908328002022514 3.6555595006630646 4.040132209978219 2.1461351307596197 24.626822984307594 13.87425088564878 9.246026109628193 12.427846830035088 23.53370648083503 0.11597271947592903 70.69338351119946 25.560853546812233 64.63482136872437 54.43733248676675 0.06943563998385349 0.4375717794098621 26.80157781946986 72.45894863393147 5.39841523582778 17.9124128962246 34.00306788284547 1.8081140356712309 19.298674868999147 0.039571977216393724 0.08022344367148967 9.577379111281907 11.699334305413988 1.6976442983998496 16.19691611388608 67.04190796412107 0.10904673272995116 8.427719426201744 80.44853953550381 0.4356791210929657 0.12251321885941906 8.962281335841126 31.97781323310993 45.73244689721301 0.16122428855200138 106.78536806974674 5.503406346398406 83.91980243231649 2.7049978606836955 91.37531420875952 168.3232795515809 20.36833174804759 45.74827393822019 22.710816869907426 36.212602764638305 122.42252134321579 17.304483998138323 23.391923035719774 9.765697014741423 1.0419434984450844 14.745182158308017 18.90329599199105 80.20186180054746 25.718284892179557 58.073405671453784 74.33427833937493 22.430354557299776 0.1392217389955584 0.02471971901229832 68.54253867703403 35.55732502822786 61.297884155259396 13.317670990720451 4.142828181597527 19.50565980494364 27.381432316259072 41.615025482547445 10.329445392096616 79.81959450663243 3.7889369042582715 77.60861740922648 0.13048567133584524 55.1451882986892 79.51284893828696 39.32054877497833 72.64593371679634 21.5969866188073 1.3526004000835354 119.64511860949798 5.7789269986119525 39.31572796387671 14.34188049629368 75.60213537633886 81.41656553312816 0.5545069739155333 15.519915028331086 0.0812264725782778 48.04071414145448 0.024720356156820125 78.73370138264461 32.17900831990276 13.114090870056485 89.4132765320919 20.10945401061881 1.9729760301253463 1.453021228703135 17.86623051857968 0.10143376421368568 0.13112275326832917 6.755121504845495 56.3574632533582 8.342936836461066 0.012930318620127857 75.43928214319914 20.19899453693103 0.1670832578413377 21.465783598689526 22.442334626319976 23.406394007041634 100.01103367322781 19.720501127766084 6.054324001333924 12.165301449911055 3.231974073901168 9.798766403740862 53.2383732672602 13.284383690889321 45.46199161488021 117.04570779022443 154.20207423502316 10.521273765874058 7.087771756797885 5.163201140843197 50.11485788929261 85.67531266431136 78.33914829487983 12.319632968930298 28.697223415938705 31.031470778849716 0.6939582007425292 111.4907540090713 5.625545598232965 36.42936608986483 7.5789294176378945 29.423877955461453 186.2367259483342 28.755472152810515 8.586603278861313 17.328286496788728 5.154198376424752 8.771571773334081 18.502537083823093 3.497201020385866 33.46337781609697 0.6406337755990367 14.67934440890996 1.801687068564018 30.753563715714495 11.371373302156746 43.55329303453732 127.6676874986459 119.31451754412733 14.487366201863967 2.7810574611461796 0.030954804849814957 0.05334012361732015 3.75453490518388 27.318212954928182 1.9497447807149189 3.29325984483424 0.0252394342426036 69.12173989230114 6.5539485425396515 1.5810412676099 18.247057030861686 2.587122559682855 81.19357509466289 64.41428213311643 0.1541514959371337 67.63286247194782 65.679954165324 85.70325424176315 7.420096646361677 4.4357267143115795 5.8096566682550375 71.91576583900901 67.61432847059037 72.9809015662569 68.25947006046042 2.019386562014128 39.47440857399208 4.786688806267257 36.446794400052305 1.7242091286993253 1.2540275574872455 105.40699833792003 7.645185919400239 40.64323800659941 36.483867044070436 24.351031865756227 0.9049730400291343 19.318747794064983 79.0882026044287 1.3538458484135902 57.77578199647804 16.365691288997617 3.0666563054840354 47.433313250860195 53.10546888866861 141.2893064988937 21.07534429365619 1.161439368119611 3.2414775793947053 0.9888009641274587 105.52664644983004 2.385276377126404 6.0596206722976875 74.39381037456172 0.8447914244668774 3.377806179617434 0.07669558010620019 0.45308975365123605 117.84282820357045 10.615253524265158 32.348454231162 21.29394676948062 97.5144125777904 5.2166542443737995 32.746217500692104 0.10943779512157888 0.6674850457506778 2.2032764755124834 0.636531929507647 0.9157980764653532 37.985153309398804 19.38831037748288 0.7830580362636668 50.62853718570163 51.06457254403866 1.5870758971634256 0.5703682650909705 92.75138573169396 45.50112460725997 17.917423940081623 6.559546332843642 14.095560659584125 15.465891307542861 75.8226357560248 1.4456848386361616 0.03752558155824411 0.6194878074051462 21.26785260191608 0.4503266711369874 3.527041986959859 72.88765242475057 70.11160210880738 1.0713449800204735 0.1075416421478329 51.99518523131102 114.58338937048394 0.5318572483749635 0.383536422715145 82.02211697046295 45.22328118387289 1.1598123059188084 77.22842547441287 5.587309674640785 0.13528196198847556 85.65952897195953 63.573288128428935 15.270871011613483 0.7812300083268761 4.458509181747086 46.723060757998105 9.335435671809 54.19582551377475 54.530186218357734 0.7242944503597706 2.2003721112028165 59.48382510331927 1.8660454430418205 9.49597429247847 51.25232361706007 1.1501253866539962 27.029524142519648 0.4192774917563201 54.638786874876466 1.464695498674031 0.3034627575896142 108.97961454104828 8.166585365793882 40.758572137329764 0.527288577551229 3.753412783969172 62.79538049854114 1.2532148684259734 3.000876865715908 51.44479161475587 74.28196375759113 0.888926298724349 7.190395113265956 0.49047373125070437 47.08189217338481 0.8353765312843967 44.46008807203725 42.67411970842007 2.5769347795248794 20.458538489389714 0.991158887538607 0.3555838660982979 2.071984082057491 15.803311116040444 30.818426700849017 0.14744265312121255 0.8474262570736687 0.12066552525211993 0.8107549717737983 0.11575574958323323 51.64177258618434 0.6701794484067737 1.7080738793178742 1.3530599696522267 0.1124482219149415 0.33147968018985285 11.00041906841973 45.51251959896553 39.51280754385291 39.247264912591696 17.79107589359216 0.5735150548236876 0.2391646638010104 0.7838180299137981 4.890522056293489 42.40434079428471 48.53308345208165 92.89839534082732 61.48003453873829 0.10591145300603794 0.7530251505948705 27.75748035504244 33.70516896752387 1.0717750481359805 0.9139297978042379 33.91109203784915 34.16921959516763 40.859159222528675 0.7222480880497595 19.389211181970687 51.33740431997248 42.52548831376379 43.54806761485597 30.85469409592765 93.6761679012874 0.4538641758078175 51.82533336034482 0.42082877046564254 34.87854416984885 39.46699575012943 37.525029396776745 0.35991083310840843 0.617230556499044 49.74933607476493 0.38802835685183046 0.3058497159179176 0.4873586219469051 0.08979397735626528 38.39845917075999 0.30181992471011976 0.4164070826181485 0.23045762923640753 0.1368679734462325 0.3068553746196399 55.12885222858955 65.63832621986495 0.24626156701296825 0.2851924104481205 207.0284800582412 42.179589718511146 0.20302486044945808 0.2582024702281393 41.06874503112592 39.22972076986763 0.12832252761450694 0.2636988189748205 29.03503167922514 0.13580016210383214 0.31303920834455506 49.3373438162689 0.2804113425698043 0.3285696096870765 24.845127627193236 29.73109827918021 17.86690104586965 23.398965527745627 0.22077232158560423 0.29692570277044067 21.229097393992937 30.27490540888975 0.18790538610932928 26.491100081901827 11.2289995276982 0.10550445220574033 27.409248591975324 0.08688707167920683 56.44992416133348 48.68945432731602 35.783203601339295 38.6886533466936 25.600889953050956 0.14677973644259312 70.19101481504616 39.42763414416407 49.49636373861461 45.780142841901004 0.12551948008909486 0.021518090584816938 0.020450900431340145 0.09405314016003741 0.15975347202276347 80.70675925383689 0.3416357964761398 46.2485013988542 0.10654700211331736 0.17274426057151213 0.10854818471259108 33.417783990552984 37.41381633584557 69.76866878103009 0.19478902807599202 58.73706003839846 0.16908000428095038 0.18258025072773018 16.78811280559648 2.834485025015552 59.60574103828373 0.09832855031730585 0.1559579557883044 0.11456924546587037 66.21759646524679 0.04425703208031728 29.277081951241723 0.09611529281121708 75.09638782088757 79.71687600538075 0.10534100602614527 0.11536075465677349 8.327925112290572 5.509614375400542 136.77462531503122 47.1094969838662 29.161584904649743 29.238543993768875 0.14775067928225008 0.08839687282445927 39.95571981015494 49.0077824574212 0.08879688690214892 22.445216840596267 28.343025731892304 0.07650036762546994 8.005676503267368 43.88865945223497 0.08181229714960547 0.32701592884070096 39.86874294186761 67.4873228406666 0.12442574029939293 26.94087502340314 0.1282418565029771 16.758292123974627 41.60454706560505 15.928745934872019 0.11444790734686934 28.52163587762098 25.05178136002296 24.34332240154276 29.91428493385221 9.820132506729026 7.397320878680655 48.10345220915631 31.48987629242096 0.38798783379555174 0.744552311443467 32.24175676982518 31.602052067957057 11.663866924565925 24.8052251184963 21.864827762344422 24.097540434808455 0.07482616685506174 9.23227336696371 44.75409473780463 45.078974637498064 11.56520530704017 0.10339658776819903 0.08591165990052088 23.133908648947028 14.446045458197597 33.63239987310568 0.3995054889755591 17.550267951894238 10.35668153464649 1.9152638753037918 39.03795231716106 0.11023048107221145 0.7560123072833386 0.06540488501790943 0.1475361691660169 2.181165325023541 15.361103445528926 16.344158857748834 0.2065105705023486 12.303828358441457 0.5073298497164598 0.09204310296178955 30.404156811673477 0.2261266313812535 0.5773206517966162 32.24314343278539 0.11570330264188346 26.4575346202522 13.593930925254815 46.627166508027855 73.04712827778913 113.78309233657144 0.08327903974885636 20.316298371084837 0.10276390785065591 1.181477070018705 60.32422022525189 33.71914800257131 3.505577957853786 0.42065488288129355 19.710788935796057 25.965263701412013 1.0648629521167918 0.06978137678693373 35.25252246204077 6.19095225925153 0.1346180688951005 0.7933752460916182 0.1561145985716299 25.72644670582081 0.5341393087878469 40.44885332357833 0.09804436577929783 0.4460376853492743 1.9702516659879161 0.057699477295161096 0.08357679097356933 0.23858255859752425 1.97580327811052 42.27112887379046 1.2998303690161221 0.19118998347916155 0.34001272537097793 0.12308200447184237 0.2214728106625216 13.831602219334139 0.6435328180101928 14.081570435644077 2.305183533067766 1.323681737406947 1.8215846494337715 1.2793694881266504 0.07706701297234311 0.8429611030988323 2.8235964790934323 0.06069311887038524 22.620791634983334 0.11980611101949759 4.267486832338906 24.776592918482613 0.1663885276986948 3.030585550418856 26.880447299167987 0.07433819850653095 0.1053893164613958 0.14207940079295123 0.5660836623617673 0.28903405278145816 0.25338172139729687 0.4772595064369344 14.366931159495971 1.0431644885810818 0.2227309654211398 0.3440410622434602 0.14396112612214562 62.22384598902671 9.617712100614183 0.10240819313036668 36.99113448848274 75.93960206319365 36.910820655824516 0.18447729099647456 12.12997061116194 0.07740588676408333 3.608997504254769 3.3048574818713763 1.009659848873409 24.27552180617516 0.10895049962070491 16.99830053216583 0.48529295060626015 1.0621990902122838 0.22214393842230068 0.06933074750085946 0.07856648430109554 0.3478295385618841 0.8137580700188661 0.35831636864126454 0.2019197518107464 0.1305133299516999 8.342299407989742 0.677283195007256 4.608093526485124 1.6837028300412513 0.8746312854752906 0.07291077916397244 1.4598930637890126 67.71854438966841 2.2341574787506784 0.30489255127299764 31.262987056893156 2.3052312912199717 0.4307522287695864 1.6874070664266827 0.07952140987042858 1.4995693085838084 0.25303145805359295 2.003633277881743 1.2015661145860093 17.950185340779054 1.555813431797254 0.3777227193784171 13.950075384469793 7.755743672406939 15.76671230090938 0.11905475121980824 0.18199284576080257 2.691764970651227 17.113692774531287 2.0346447076215712 19.364138814848666 0.07715380099489975 3.7323984206746186 2.2494992491101136 0.22606605814957062 0.10709920420729356 9.530064879606599 3.6911806741100093 71.20375553293115 2.945601039461908 0.5986751830062946 2.12599777023768 0.10856850362576864 1.3782118686472598 1.2539128573443041 21.32509959716167 0.13777149823014076 19.86474222206493 14.800726915144262 0.16041392587559358 6.89367498082426 45.21186225773602 26.95719999064556 13.728881483094101 0.10605434040629977 5.870859327712326 0.44363522523855903 13.088872564200198 22.504022794293977 22.618000378395575 0.9459369464329365 0.1182484344357715 1.0735244605060386 40.29136165201742 0.7097753253815752 1.0385536837742435 0.4496768032104935 0.1863862881351748 0.9845033324051985 0.2055750545952509 29.41667032688022 0.20311931532438954 0.32091183345838875 6.311845595859906 19.273869871224825 0.06299050896024751 3.150745021824196 22.304653180714222 13.286518230741681 0.10041751295811294 0.21920481928708926 8.86776977448436 18.196188593204482 0.07941285267660507 48.35136540042328 29.292659444245764 15.182172823824454 0.3375502101030496 17.98661569360717 0.10071036078680017 6.233094959624596 0.08396612316658993 6.443523864808346 0.08580676826554408 0.09644368209212323 1.9525317449836999 1.09033562948514 0.2048552427040324 34.985824903643135 3.737908573942709 11.189150804902656 0.5040569210503923 6.300742612309342 0.12530310949706613 12.217133779413611 6.6640851889474515 11.130415033630609 2.522636368027563 1.129652786382416 4.8772315822574255 2.315826975755804 0.5422225346215499 0.15790183205555 0.24408465282987687 1.2406547157440773 5.111870177373136 0.27974755848882465 0.2498167042078569 55.4574595508786 0.28763904638145543 0.5668003020558277 0.4270051209599513 0.6298665635550468 13.324997176839544 1.0048271534858697 0.35475306549738683 68.70444543972167 69.83586852035624 14.888343023482728 20.106743656567783 14.640406305734816 4.018200082236007 0.14297761283430827 15.777864113305965 0.06793196079534063 0.08128763067580477 14.317762700070771 0.3950758839387914 0.5844716344177661 1.4372361833239051 12.238444347119927 0.9830534507467419 0.8386551379537457 4.848362020217275 16.901134093171862 0.28940920303613665 0.10462223677757698 0.09299802543203138 12.625212176423634 1.6914575080569876 1.0149207052988178 0.065694848726125 4.239839581981692 2.5051609858284523 0.0800688683057977 0.5629000626015961 1.5553758102222128 2.493532681947935 0.5146764067162838 11.011270303736739 2.0989408423260683 0.17995433229132446 10